                         Program Version 3.0.3 -  RELEASE  -
|  1> ! RKS BP86 RI SV(P)+  TightScf  cosmo(Acetonitrile)
|  2> %basis Aux  Auto end
|  3> %tddft
|  4> 	mode riints
|  5> 	NRoots 10
|  6> 	MaxDim 200
|  7> 	triplets false
|  8> end
|  9>
| 10> *xyzfile 0 1 guess.xyz
| 11>
| 12>
| 13>
| 14>                          ****END OF INPUT****

CARTESIAN COORDINATES (ANGSTROEM)
---------------------------------
  C      7.757500    1.620650   -2.149430
  C      7.514370    2.346750   -3.323340
  C      8.515510    3.153720   -3.871940
  C      9.774750    3.236340   -3.264200
  N     10.762290    4.090790   -3.843580
  N     12.006160    3.912760   -3.805580
  C     12.668440    2.674100   -3.544580
  C     13.918650    2.698850   -2.913550
  C     14.609660    1.510120   -2.660850
  C     14.062490    0.279590   -3.049220
  C     12.821000    0.248910   -3.698920
  C     12.128800    1.436870   -3.951770
  C     10.010880    2.520360   -2.072830
  C      9.008780    1.714130   -1.525000
  H      6.549100    2.288610   -3.810570
  H      8.314050    3.712760   -4.777220
  H     14.353760    3.643510   -2.611950
  H     15.571620    1.547130   -2.165090
  H     12.393420   -0.694930   -4.013380
  H     11.181260    1.388640   -4.470690
  H     10.961810    2.590260   -1.562650
  H      9.204580    1.166350   -0.611690
  N      6.742170    0.804170   -1.592950
  H      5.819280    0.734180   -2.046230
  H      6.914480    0.270370   -0.728400
  N     14.763780   -0.924740   -2.794320
  H     15.678420   -0.907760   -2.319710
  H     14.367540   -1.832100   -3.080270

 Total Charge           Charge          ....    0
 Multiplicity           Mult            ....    1
 Number of Electrons    NEL             ....  112
 Basis Dimension        Dim             ....  312

ORBITAL ENERGIES
----------------

  NO   OCC          E(Eh)            E(eV)
   0   2.0000     -14.058036      -382.5386
   1   2.0000     -14.057958      -382.5365
   2   2.0000     -14.029177      -381.7533
   3   2.0000     -14.029013      -381.7489
   4   2.0000      -9.967814      -271.2380
   5   2.0000      -9.967687      -271.2345
   6   2.0000      -9.945022      -270.6178
   7   2.0000      -9.944925      -270.6152
   8   2.0000      -9.923971      -270.0450
   9   2.0000      -9.923725      -270.0383
  10   2.0000      -9.922560      -270.0066
  11   2.0000      -9.922485      -270.0046
  12   2.0000      -9.918402      -269.8935
  13   2.0000      -9.918377      -269.8927
  14   2.0000      -9.916758      -269.8487
  15   2.0000      -9.916399      -269.8389
  16   2.0000      -0.936750       -25.4903
  17   2.0000      -0.831388       -22.6232
  18   2.0000      -0.830939       -22.6110
  19   2.0000      -0.778008       -21.1707
  20   2.0000      -0.765681       -20.8352
  21   2.0000      -0.704181       -19.1617
  22   2.0000      -0.681831       -18.5536
  23   2.0000      -0.679128       -18.4800
  24   2.0000      -0.668363       -18.1871
  25   2.0000      -0.602714       -16.4007
  26   2.0000      -0.568212       -15.4618
  27   2.0000      -0.562334       -15.3019
  28   2.0000      -0.560974       -15.2649
  29   2.0000      -0.516669       -14.0593
  30   2.0000      -0.497929       -13.5493
  31   2.0000      -0.474514       -12.9122
  32   2.0000      -0.473262       -12.8781
  33   2.0000      -0.470442       -12.8014
  34   2.0000      -0.465884       -12.6774
  35   2.0000      -0.409636       -11.1468
  36   2.0000      -0.408964       -11.1285
  37   2.0000      -0.405016       -11.0210
  38   2.0000      -0.400679       -10.9030
  39   2.0000      -0.387060       -10.5324
  40   2.0000      -0.385497       -10.4899
  41   2.0000      -0.366375        -9.9696
  42   2.0000      -0.365877        -9.9560
  43   2.0000      -0.357935        -9.7399
  44   2.0000      -0.353660        -9.6236
  45   2.0000      -0.344467        -9.3734
  46   2.0000      -0.335828        -9.1384
  47   2.0000      -0.316178        -8.6036
  48   2.0000      -0.315965        -8.5978
  49   2.0000      -0.277361        -7.5474
  50   2.0000      -0.272542        -7.4162
  51   2.0000      -0.245107        -6.6697
  52   2.0000      -0.234828        -6.3900
  53   2.0000      -0.202672        -5.5150
  54   2.0000      -0.198494        -5.4013
  55   2.0000      -0.164044        -4.4639
  56   0.0000      -0.108691        -2.9576
  57   0.0000      -0.058843        -1.6012
  58   0.0000      -0.043919        -1.1951
  59   0.0000      -0.026938        -0.7330
  60   0.0000      -0.008675        -0.2360

MULLIKEN ATOMIC CHARGES
-----------------------
   0 C :    3.091764
   1 C :   -1.079362
   2 C :   -1.224757
   3 C :    1.098857
   4 N :   -0.262748
   5 N :   -0.232052
   6 C :    0.970306
   7 C :   -1.183769
   8 C :   -1.055550
   9 C :    3.107856
  10 C :   -1.117373
  11 C :   -0.720463
  12 C :   -0.813056
  13 C :   -1.087126
  14 H :    0.148274
  15 H :    0.156721
  16 H :    0.154362
  17 H :    0.146291
  18 H :    0.152526
  19 H :    0.213685
  20 H :    0.218989
  21 H :    0.154807
  22 N :   -1.439316
  23 H :    0.510407
  24 H :    0.510215
  25 N :   -1.440505
  26 H :    0.510122
  27 H :    0.510894
Sum of atomic charges:    0.0000000

LOEWDIN ATOMIC CHARGES
----------------------
   0 C :   -0.026755
   1 C :   -0.204338
   2 C :   -0.157661
   3 C :   -0.122432
   4 N :   -0.156686
   5 N :   -0.156977
   6 C :   -0.122615
   7 C :   -0.157809
   8 C :   -0.202701
   9 C :   -0.027103
  10 C :   -0.193053
  11 C :   -0.153283
  12 C :   -0.153510
  13 C :   -0.193308
  14 H :    0.210644
  15 H :    0.215715
  16 H :    0.215499
  17 H :    0.210356
  18 H :    0.211506
  19 H :    0.226722
  20 H :    0.227115
  21 H :    0.211819
  22 N :   -0.506729
  23 H :    0.328134
  24 H :    0.328152
  25 N :   -0.506794
  26 H :    0.328152
  27 H :    0.327940

  Mayer bond orders larger than 0.1
B(  0-C ,  1-C ) :  -1.1093 B(  0-C ,  2-C ) :  -0.4278 B(  0-C ,  6-C ) :  -0.1059
B(  0-C , 12-C ) :  -0.2565 B(  0-C , 13-C ) :  -1.1257 B(  0-C , 14-H ) :  -0.5124
B(  0-C , 21-H ) :  -0.5614 B(  0-C , 22-N ) :  -1.2998 B(  0-C , 23-H ) :  -0.2352
B(  0-C , 24-H ) :  -0.2296 B(  1-C ,  2-C ) :   1.4728 B(  1-C , 11-C ) :   0.1246
B(  1-C , 12-C ) :  -0.2582 B(  1-C , 13-C ) :  -0.3295 B(  1-C , 14-H ) :   1.6221
B(  1-C , 15-H ) :  -0.1759 B(  1-C , 21-H ) :  -0.1413 B(  1-C , 22-N ) :   0.7293
B(  1-C , 23-H ) :   0.2356 B(  1-C , 24-H ) :  -0.1310 B(  2-C ,  3-C ) :  -0.1903
B(  2-C ,  4-N ) :   0.2319 B(  2-C ,  6-C ) :  -0.2001 B(  2-C ,  7-C ) :   0.3274
B(  2-C , 10-C ) :   0.1766 B(  2-C , 11-C ) :  -0.3890 B(  2-C , 12-C ) :  -0.1671
B(  2-C , 15-H ) :   1.6814 B(  2-C , 19-H ) :  -0.1329 B(  2-C , 22-N ) :   0.2437
B(  3-C ,  4-N ) :   0.7811 B(  3-C ,  5-N ) :   0.1657 B(  3-C ,  6-C ) :   0.6515
B(  3-C ,  7-C ) :  -0.1793 B(  3-C ,  9-C ) :  -0.1092 B(  3-C , 11-C ) :   0.3789
B(  3-C , 15-H ) :  -0.5603 B(  3-C , 19-H ) :   0.2180 B(  3-C , 20-H ) :  -0.4534
B(  4-N ,  5-N ) :   1.1827 B(  4-N ,  6-C ) :   0.1666 B(  5-N ,  6-C ) :   0.8183
B(  5-N ,  7-C ) :   0.1890 B(  6-C ,  7-C ) :  -0.1094 B(  6-C , 11-C ) :   0.1353
B(  6-C , 12-C ) :   0.4102 B(  6-C , 16-H ) :  -0.5628 B(  6-C , 19-H ) :  -0.3854
B(  6-C , 20-H ) :   0.2109 B(  7-C ,  8-C ) :   1.4927 B(  7-C ,  9-C ) :  -0.4342
B(  7-C , 11-C ) :  -0.1833 B(  7-C , 12-C ) :  -0.4184 B(  7-C , 13-C ) :   0.1939
B(  7-C , 16-H ) :   1.6762 B(  7-C , 20-H ) :  -0.1307 B(  7-C , 25-N ) :   0.2435
B(  8-C ,  9-C ) :  -1.0511 B(  8-C , 10-C ) :  -0.3215 B(  8-C , 11-C ) :  -0.2546
B(  8-C , 12-C ) :   0.1428 B(  8-C , 16-H ) :  -0.1687 B(  8-C , 17-H ) :   1.6123
B(  8-C , 18-H ) :  -0.1493 B(  8-C , 25-N ) :   0.7161 B(  8-C , 26-H ) :   0.2379
B(  8-C , 27-H ) :  -0.1317 B(  9-C , 10-C ) :  -1.1801 B(  9-C , 11-C ) :  -0.3019
B(  9-C , 17-H ) :  -0.5021 B(  9-C , 18-H ) :  -0.5723 B(  9-C , 25-N ) :  -1.3119
B(  9-C , 26-H ) :  -0.2359 B(  9-C , 27-H ) :  -0.2315 B( 10-C , 11-C ) :   1.5099
B( 10-C , 17-H ) :  -0.1477 B( 10-C , 18-H ) :   1.6631 B( 10-C , 19-H ) :  -0.1689
B( 10-C , 25-N ) :   0.7377 B( 10-C , 26-H ) :  -0.1286 B( 10-C , 27-H ) :   0.2358
B( 11-C , 12-C ) :  -0.9277 B( 11-C , 19-H ) :   1.4214 B( 11-C , 20-H ) :  -0.1467
B( 11-C , 25-N ) :   0.2706 B( 12-C , 13-C ) :   1.4552 B( 12-C , 19-H ) :  -0.1456
B( 12-C , 20-H ) :   1.4847 B( 12-C , 21-H ) :  -0.1036 B( 12-C , 22-N ) :   0.2664
B( 13-C , 14-H ) :  -0.1468 B( 13-C , 20-H ) :  -0.1734 B( 13-C , 21-H ) :   1.6582
B( 13-C , 22-N ) :   0.7213 B( 13-C , 23-H ) :  -0.1290 B( 13-C , 24-H ) :   0.2361
B( 22-N , 23-H ) :   0.7525 B( 22-N , 24-H ) :   0.7511 B( 25-N , 26-H ) :   0.7509
B( 25-N , 27-H ) :   0.7531

-----------------------------------------------------------------------------
         ABSORPTION SPECTRUM VIA TRANSITION ELECTRIC DIPOLE MOMENTS
-----------------------------------------------------------------------------
State   Energy  Wavelength   fosc         T2         TX        TY        TZ
        (cm-1)    (nm)                  (au**2)     (au)      (au)      (au)
-----------------------------------------------------------------------------
   1   16899.0    591.8   0.179369720   3.49433   1.74547  -0.46404  -0.48202
   2   23588.2    423.9   0.121858423   1.70073  -1.25038   0.28877   0.23214
   3   24156.2    414.0   0.104599361   1.42553  -1.18063   0.15268  -0.09127
   4   24134.7    414.3   0.066348029   0.90503  -0.13969  -0.87333   0.35043
   5   26976.0    370.7   0.007889408   0.09628   0.04531   0.28532  -0.11323
   6   28117.5    355.7   0.063004984   0.73769   0.84586  -0.08148   0.12478
   7   30475.5    328.1   0.000495245   0.00535   0.00550   0.06746  -0.02773
   8   31719.3    315.3   0.044984295   0.46689  -0.67797   0.08007  -0.02885
   9   32295.2    309.6   0.008726944   0.08896  -0.00721  -0.27653   0.11153
  10   34774.3    287.6   0.168257641   1.59291  -0.19721  -1.15688   0.46438

FINAL SINGLE POINT ENERGY      -682.912650841501

DIPOLE MOMENT
-------------
                                X             Y             Z
Electronic contribution:      0.72824       4.65353      -1.87203
Nuclear contribution   :     -1.31853      -8.48465       3.40669
                        -----------------------------------------
Total Dipole Moment    :     -0.59029      -3.83112       1.53465
                        -----------------------------------------
Magnitude (a.u.)       :      4.16907
Magnitude (Debye)      :     10.59692

                             ****ORCA TERMINATED NORMALLY****
TOTAL RUN TIME: 0 days 0 hours 4 minutes 16 seconds 52 msec
