                         Program Version 3.0.3 -  RELEASE  -
|  1> ! RKS BP86 RI SV(P)+  TightScf  cosmo(Acetonitrile)
|  2> %basis Aux  Auto end
|  3> %tddft
|  4> 	mode riints
|  5> 	NRoots 10
|  6> 	MaxDim 200
|  7> 	triplets false
|  8> end
|  9>
| 10> *xyzfile 0 1 guess.xyz
| 11>
| 12>
| 13>
| 14>                          ****END OF INPUT****

CARTESIAN COORDINATES (ANGSTROEM)
---------------------------------
  C      4.380410    0.472250   -1.091190
  C      5.680160   -0.325900   -1.055610
  H      3.548460   -0.154260   -0.706130
  H      4.143290    0.777670   -2.132660
  H      4.466700    1.379110   -0.455340
  C      6.851950    0.499950   -1.577680
  H      5.567060   -1.236860   -1.682100
  H      5.889570   -0.637080   -0.009440
  H      6.670090    0.805970   -2.630030
  H      7.781080   -0.106820   -1.539250
  H      6.993500    1.407440   -0.952710

 Total Charge           Charge          ....    0
 Multiplicity           Mult            ....    1
 Number of Electrons    NEL             ....   26
 Basis Dimension        Dim             ....   70

ORBITAL ENERGIES
----------------

  NO   OCC          E(Eh)            E(eV)
   0   2.0000      -9.901933      -269.4453
   1   2.0000      -9.894639      -269.2468
   2   2.0000      -9.894481      -269.2425
   3   2.0000      -0.700393       -19.0587
   4   2.0000      -0.602278       -16.3888
   5   2.0000      -0.511417       -13.9164
   6   2.0000      -0.409308       -11.1378
   7   2.0000      -0.386705       -10.5228
   8   2.0000      -0.351489        -9.5645
   9   2.0000      -0.334402        -9.0996
  10   2.0000      -0.292894        -7.9700
  11   2.0000      -0.290625        -7.9083
  12   2.0000      -0.285349        -7.7648
  13   0.0000       0.012703         0.3457
  14   0.0000       0.031727         0.8633
  15   0.0000       0.035272         0.9598
  16   0.0000       0.044087         1.1997
  17   0.0000       0.067916         1.8481

MULLIKEN ATOMIC CHARGES
-----------------------
   0 C :   -0.604002
   1 C :   -0.410538
   2 H :    0.201549
   3 H :    0.204812
   4 H :    0.206549
   5 C :   -0.618160
   6 H :    0.203990
   7 H :    0.198826
   8 H :    0.206324
   9 H :    0.202317
  10 H :    0.208334
Sum of atomic charges:   -0.0000000

LOEWDIN ATOMIC CHARGES
----------------------
   0 C :   -0.491117
   1 C :   -0.392714
   2 H :    0.170418
   3 H :    0.172973
   4 H :    0.173376
   5 C :   -0.491843
   6 H :    0.171110
   7 H :    0.170555
   8 H :    0.173572
   9 H :    0.170261
  10 H :    0.173409

  Mayer bond orders larger than 0.1
B(  0-C ,  1-C ) :   0.6155 B(  0-C ,  2-H ) :   0.9950 B(  0-C ,  3-H ) :   0.9781
B(  0-C ,  4-H ) :   0.9764 B(  0-C ,  5-C ) :  -0.2741 B(  1-C ,  5-C ) :   0.6192
B(  1-C ,  6-H ) :   1.0185 B(  1-C ,  7-H ) :   1.0186 B(  5-C ,  8-H ) :   0.9769
B(  5-C ,  9-H ) :   0.9944 B(  5-C , 10-H ) :   0.9766

-----------------------------------------------------------------------------
         ABSORPTION SPECTRUM VIA TRANSITION ELECTRIC DIPOLE MOMENTS
-----------------------------------------------------------------------------
State   Energy  Wavelength   fosc         T2         TX        TY        TZ
        (cm-1)    (nm)                  (au**2)     (au)      (au)      (au)
-----------------------------------------------------------------------------
   1   64883.6    154.1   0.002213061   0.01123  -0.01849  -0.03455  -0.09845
   2   66571.9    150.2   0.065117421   0.32202  -0.55673  -0.01022   0.10938
   3   67218.7    148.8   0.005374276   0.02632   0.03201  -0.15059   0.05116
   4   68000.5    147.1   0.000065272   0.00032   0.00490   0.00173   0.01700
   5   69640.8    143.6   0.063784475   0.30153  -0.10104  -0.18657  -0.50647
   6   70402.0    142.0   0.001141890   0.00534   0.02183   0.06481  -0.02575
   7   70149.1    142.6   0.040714825   0.19108   0.42396   0.03198  -0.10153
   8   71188.8    140.5   0.052719446   0.24380  -0.07245   0.46416  -0.15202
   9   70883.6    141.1   0.006940620   0.03224   0.16895   0.04307  -0.04283
  10   72078.4    138.7   0.148684100   0.67910  -0.06338   0.77765  -0.26524

FINAL SINGLE POINT ENERGY      -118.736807164655

DIPOLE MOMENT
-------------
                                X             Y             Z
Electronic contribution:      0.03398      -0.43999       0.15007
Nuclear contribution   :     -0.03090       0.39228      -0.13470
                        -----------------------------------------
Total Dipole Moment    :      0.00309      -0.04771       0.01536
                        -----------------------------------------
Magnitude (a.u.)       :      0.05022
Magnitude (Debye)      :      0.12764

                             ****ORCA TERMINATED NORMALLY****
TOTAL RUN TIME: 0 days 0 hours 0 minutes 20 seconds 855 msec
