                         Program Version 3.0.3 -  RELEASE  -
|  1> ! RKS BP86 RI SV(P)+  TightScf  cosmo(Acetonitrile)
|  2> %basis Aux  Auto end
|  3> %tddft
|  4> 	mode riints
|  5> 	NRoots 10
|  6> 	MaxDim 200
|  7> 	triplets false
|  8> end
|  9>
| 10> *xyzfile 0 1 guess.xyz
| 11>
| 12>
| 13>
| 14>                          ****END OF INPUT****

CARTESIAN COORDINATES (ANGSTROEM)
---------------------------------
  C      7.749720    1.705220   -1.920850
  C      7.578800    2.515940   -3.068700
  C      8.689560    3.063970   -3.719900
  C      9.978880    2.817140   -3.245200
  N     11.099940    3.301080   -3.972960
  N     12.248410    3.040930   -3.567970
  C     13.427050    3.317680   -4.297280
  C     14.626220    2.952830   -3.700800
  C     15.822550    3.143130   -4.357600
  C     15.865400    3.698700   -5.631380
  C     14.664480    4.084600   -6.265740
  C     13.435650    3.892390   -5.590820
  C     10.147720    2.035840   -2.083040
  C      9.042530    1.488030   -1.433290
  H      6.607090    2.710680   -3.490140
  H      8.547690    3.658750   -4.612820
  H     14.629820    2.504640   -2.715700
  H     16.744140    2.844640   -3.873660
  H     14.670790    4.520380   -7.257170
  H     12.507170    4.176510   -6.071710
  H     11.136320    1.825280   -1.693040
  H      9.194520    0.867610   -0.557730
  N      6.668800    1.044510   -1.261920
  N     17.159010    3.827370   -6.182280
  C      4.402290    0.331460   -0.872400
  C      4.762800   -0.610630    0.111070
  C      3.781140   -1.397550    0.722820
  C      2.439150   -1.251020    0.361700
  C      2.074960   -0.317340   -0.611470
  C      3.051170    0.470360   -1.227540
  H      1.035860   -0.205900   -0.892450
  H      2.755670    1.185800   -1.985290
  H      4.061350   -2.124330    1.474470
  H      1.681430   -1.862520    0.834040
  H      5.798450   -0.743150    0.398590
  C     19.075320    4.185660   -7.498930
  C     19.883310    3.798900   -6.403160
  C     21.268230    3.768210   -6.510940
  C     21.879390    4.119550   -7.710650
  C     21.099260    4.503070   -8.808650
  C     19.697390    4.538150   -8.708050
  H     19.108240    4.835900   -9.565770
  H     22.958510    4.093060   -7.785790
  H     21.585430    4.772690   -9.736310
  H     19.440950    3.519080   -5.454840
  H     21.864040    3.470100   -5.657020
  C      5.418290    1.158450   -1.559730
  C     17.595910    4.202530   -7.329460
  H     16.924990    4.499860   -8.132030
  H      5.083440    1.824890   -2.342070

 Total Charge           Charge          ....    0
 Multiplicity           Mult            ....    1
 Number of Electrons    NEL             ....  204
 Basis Dimension        Dim             ....  580

ORBITAL ENERGIES
----------------

  NO   OCC          E(Eh)            E(eV)
   0   2.0000     -14.064987      -382.7277
   1   2.0000     -14.061397      -382.6301
   2   2.0000     -14.023194      -381.5905
   3   2.0000     -14.016569      -381.4102
   4   2.0000      -9.969390      -271.2809
   5   2.0000      -9.968186      -271.2481
   6   2.0000      -9.967368      -271.2259
   7   2.0000      -9.966897      -271.2130
   8   2.0000      -9.961419      -271.0640
   9   2.0000      -9.959420      -271.0096
  10   2.0000      -9.937843      -270.4225
  11   2.0000      -9.936963      -270.3985
  12   2.0000      -9.934034      -270.3188
  13   2.0000      -9.932962      -270.2896
  14   2.0000      -9.931925      -270.2614
  15   2.0000      -9.929553      -270.1969
  16   2.0000      -9.927599      -270.1437
  17   2.0000      -9.927501      -270.1410
  18   2.0000      -9.927343      -270.1367
  19   2.0000      -9.926966      -270.1265
  20   2.0000      -9.926750      -270.1206
  21   2.0000      -9.925089      -270.0754
  22   2.0000      -9.925033      -270.0739
  23   2.0000      -9.923825      -270.0410
  24   2.0000      -9.923437      -270.0305
  25   2.0000      -9.923437      -270.0304
  26   2.0000      -9.923161      -270.0229
  27   2.0000      -9.923034      -270.0195
  28   2.0000      -9.920060      -269.9386
  29   2.0000      -9.919709      -269.9290
  30   2.0000      -0.951608       -25.8946
  31   2.0000      -0.853838       -23.2341
  32   2.0000      -0.853270       -23.2186
  33   2.0000      -0.801818       -21.8186
  34   2.0000      -0.790352       -21.5066
  35   2.0000      -0.783748       -21.3269
  36   2.0000      -0.777083       -21.1455
  37   2.0000      -0.733729       -19.9658
  38   2.0000      -0.706250       -19.2180
  39   2.0000      -0.691858       -18.8264
  40   2.0000      -0.689217       -18.7545
  41   2.0000      -0.688432       -18.7332
  42   2.0000      -0.681945       -18.5567
  43   2.0000      -0.679738       -18.4966
  44   2.0000      -0.670237       -18.2381
  45   2.0000      -0.634734       -17.2720
  46   2.0000      -0.602377       -16.3915
  47   2.0000      -0.577112       -15.7040
  48   2.0000      -0.568263       -15.4632
  49   2.0000      -0.566144       -15.4056
  50   2.0000      -0.558179       -15.1888
  51   2.0000      -0.553219       -15.0539
  52   2.0000      -0.546457       -14.8698
  53   2.0000      -0.529450       -14.4071
  54   2.0000      -0.515587       -14.0298
  55   2.0000      -0.514083       -13.9889
  56   2.0000      -0.496908       -13.5216
  57   2.0000      -0.479017       -13.0347
  58   2.0000      -0.473838       -12.8938
  59   2.0000      -0.470503       -12.8031
  60   2.0000      -0.465148       -12.6573
  61   2.0000      -0.443699       -12.0737
  62   2.0000      -0.430969       -11.7273
  63   2.0000      -0.418089       -11.3768
  64   2.0000      -0.417333       -11.3562
  65   2.0000      -0.408090       -11.1047
  66   2.0000      -0.407157       -11.0793
  67   2.0000      -0.405536       -11.0352
  68   2.0000      -0.405049       -11.0219
  69   2.0000      -0.402517       -10.9531
  70   2.0000      -0.392498       -10.6804
  71   2.0000      -0.391903       -10.6642
  72   2.0000      -0.388869       -10.5817
  73   2.0000      -0.385363       -10.4863
  74   2.0000      -0.382866       -10.4183
  75   2.0000      -0.382223       -10.4008
  76   2.0000      -0.377800       -10.2805
  77   2.0000      -0.373681       -10.1684
  78   2.0000      -0.371509       -10.1093
  79   2.0000      -0.356812        -9.7094
  80   2.0000      -0.353592        -9.6217
  81   2.0000      -0.346315        -9.4237
  82   2.0000      -0.342336        -9.3154
  83   2.0000      -0.325841        -8.8666
  84   2.0000      -0.324898        -8.8409
  85   2.0000      -0.319204        -8.6860
  86   2.0000      -0.317715        -8.6455
  87   2.0000      -0.315646        -8.5892
  88   2.0000      -0.313144        -8.5211
  89   2.0000      -0.310932        -8.4609
  90   2.0000      -0.307510        -8.3678
  91   2.0000      -0.270668        -7.3653
  92   2.0000      -0.253930        -6.9098
  93   2.0000      -0.249548        -6.7905
  94   2.0000      -0.248346        -6.7578
  95   2.0000      -0.244361        -6.6494
  96   2.0000      -0.242601        -6.6015
  97   2.0000      -0.228218        -6.2101
  98   2.0000      -0.225052        -6.1240
  99   2.0000      -0.213951        -5.8219
 100   2.0000      -0.209296        -5.6952
 101   2.0000      -0.185480        -5.0472
 102   0.0000      -0.136617        -3.7175
 103   0.0000      -0.105882        -2.8812
 104   0.0000      -0.089745        -2.4421
 105   0.0000      -0.059038        -1.6065
 106   0.0000      -0.058242        -1.5849

MULLIKEN ATOMIC CHARGES
-----------------------
   0 C :    2.795515
   1 C :   -0.352889
   2 C :   -2.077060
   3 C :    1.678489
   4 N :   -0.509262
   5 N :   -0.411096
   6 C :    1.653418
   7 C :   -1.271894
   8 C :   -1.214021
   9 C :    3.103641
  10 C :    0.133326
  11 C :   -2.368610
  12 C :   -0.538093
  13 C :   -1.628896
  14 H :    0.150531
  15 H :    0.180206
  16 H :    0.176409
  17 H :    0.171534
  18 H :    0.153528
  19 H :    0.180647
  20 H :    0.182514
  21 H :    0.169522
  22 N :   -0.645798
  23 N :   -0.741260
  24 C :    0.055326
  25 C :   -1.111803
  26 C :   -0.063935
  27 C :   -0.033775
  28 C :    0.032242
  29 C :   -0.258455
  30 H :    0.158099
  31 H :    0.152711
  32 H :    0.158477
  33 H :    0.161424
  34 H :    0.184704
  35 C :    0.114832
  36 C :   -1.210049
  37 C :    0.074207
  38 C :   -0.071233
  39 C :    0.041999
  40 C :   -0.147978
  41 H :    0.146677
  42 H :    0.163644
  43 H :    0.154887
  44 H :    0.191590
  45 H :    0.151333
  46 C :    0.913849
  47 C :    0.724269
  48 H :    0.171969
  49 H :    0.174588
Sum of atomic charges:   -0.0000000

LOEWDIN ATOMIC CHARGES
----------------------
   0 C :   -0.039133
   1 C :   -0.164082
   2 C :   -0.143703
   3 C :   -0.076800
   4 N :   -0.127496
   5 N :   -0.140642
   6 C :   -0.074748
   7 C :   -0.142937
   8 C :   -0.153304
   9 C :   -0.039201
  10 C :   -0.149237
  11 C :   -0.139341
  12 C :   -0.144418
  13 C :   -0.152257
  14 H :    0.214531
  15 H :    0.218392
  16 H :    0.219358
  17 H :    0.219459
  18 H :    0.215525
  19 H :    0.222082
  20 H :    0.224526
  21 H :    0.217255
  22 N :   -0.253011
  23 N :   -0.263831
  24 C :   -0.128930
  25 C :   -0.154108
  26 C :   -0.181120
  27 C :   -0.172649
  28 C :   -0.182703
  29 C :   -0.165268
  30 H :    0.203482
  31 H :    0.211512
  32 H :    0.203623
  33 H :    0.203578
  34 H :    0.219127
  35 C :   -0.126821
  36 C :   -0.155062
  37 C :   -0.183694
  38 C :   -0.178948
  39 C :   -0.184776
  40 C :   -0.165637
  41 H :    0.210673
  42 H :    0.203183
  43 H :    0.202261
  44 H :    0.220998
  45 H :    0.202394
  46 C :   -0.035331
  47 C :   -0.025570
  48 H :    0.207566
  49 H :    0.205233

  Mayer bond orders larger than 0.1
B(  0-C ,  1-C ) :  -0.4451 B(  0-C ,  2-C ) :  -0.5644 B(  0-C ,  3-C ) :  -0.5063
B(  0-C ,  6-C ) :  -0.4097 B(  0-C ,  8-C ) :   0.2627 B(  0-C ,  9-C ) :   0.1204
B(  0-C , 11-C ) :   0.1695 B(  0-C , 13-C ) :  -3.5161 B(  0-C , 14-H ) :  -0.5959
B(  0-C , 15-H ) :   0.1008 B(  0-C , 21-H ) :  -0.8128 B(  0-C , 22-N ) :   0.4121
B(  0-C , 24-C ) :  -0.2192 B(  0-C , 25-C ) :   0.2823 B(  0-C , 46-C ) :  -0.3401
B(  1-C ,  2-C ) :   0.6407 B(  1-C ,  3-C ) :   0.8143 B(  1-C ,  4-N ) :  -0.2503
B(  1-C ,  5-N ) :   0.2857 B(  1-C ,  6-C ) :  -1.0321 B(  1-C ,  7-C ) :   0.5610
B(  1-C ,  8-C ) :   0.1212 B(  1-C ,  9-C ) :   0.4025 B(  1-C , 10-C ) :   0.1654
B(  1-C , 11-C ) :  -0.2770 B(  1-C , 12-C ) :   0.2712 B(  1-C , 13-C ) :  -1.2575
B(  1-C , 14-H ) :   1.4601 B(  1-C , 15-H ) :  -0.4729 B(  1-C , 21-H ) :  -0.1963
B(  1-C , 22-N ) :  -0.2249 B(  1-C , 24-C ) :  -0.4447 B(  1-C , 25-C ) :  -0.1805
B(  1-C , 46-C ) :   0.7742 B(  1-C , 49-H ) :   0.3373 B(  2-C ,  3-C ) :  -2.7480
B(  2-C ,  4-N ) :   0.7954 B(  2-C ,  5-N ) :  -0.5197 B(  2-C ,  6-C ) :   0.3947
B(  2-C ,  7-C ) :  -0.4524 B(  2-C ,  8-C ) :   0.1163 B(  2-C ,  9-C ) :  -0.1280
B(  2-C , 12-C ) :  -1.0440 B(  2-C , 13-C ) :   1.2511 B(  2-C , 14-H ) :   0.2180
B(  2-C , 15-H ) :   2.3434 B(  2-C , 20-H ) :  -0.2335 B(  2-C , 24-C ) :   0.1625
B(  3-C ,  4-N ) :   0.8831 B(  3-C ,  6-C ) :   1.4102 B(  3-C ,  7-C ) :   0.1090
B(  3-C ,  8-C ) :  -0.5593 B(  3-C ,  9-C ) :  -0.4430 B(  3-C , 10-C ) :  -0.2375
B(  3-C , 12-C ) :   0.4052 B(  3-C , 13-C ) :   0.7367 B(  3-C , 15-H ) :  -0.8991
B(  3-C , 20-H ) :  -0.4065 B(  3-C , 21-H ) :   0.1081 B(  3-C , 24-C ) :   0.1038
B(  3-C , 46-C ) :  -0.1170 B(  4-N ,  5-N ) :   1.8261 B(  4-N ,  7-C ) :  -0.4925
B(  4-N ,  8-C ) :   0.2882 B(  4-N ,  9-C ) :  -0.1004 B(  4-N , 10-C ) :  -0.1395
B(  4-N , 11-C ) :   0.5542 B(  5-N ,  6-C ) :   0.7571 B(  5-N ,  7-C ) :   0.8403
B(  5-N ,  8-C ) :  -0.2722 B(  5-N ,  9-C ) :   0.1335 B(  5-N , 11-C ) :  -0.2281
B(  5-N , 12-C ) :   0.1286 B(  6-C ,  7-C ) :  -1.5260 B(  6-C ,  8-C ) :   0.8677
B(  6-C , 10-C ) :   0.6193 B(  6-C , 11-C ) :  -0.7404 B(  6-C , 13-C ) :  -0.1210
B(  6-C , 16-H ) :  -0.8374 B(  6-C , 17-H ) :   0.1674 B(  6-C , 19-H ) :  -0.5029
B(  6-C , 35-C ) :   0.1392 B(  6-C , 47-C ) :  -0.3390 B(  7-C ,  8-C ) :  -0.6068
B(  7-C , 10-C ) :   1.1359 B(  7-C , 11-C ) :  -1.4578 B(  7-C , 16-H ) :   2.3983
B(  7-C , 17-H ) :  -0.2034 B(  7-C , 19-H ) :  -0.2811 B(  7-C , 35-C ) :  -0.1619
B(  8-C ,  9-C ) :  -3.1480 B(  8-C , 10-C ) :  -1.7300 B(  8-C , 11-C ) :   1.0487
B(  8-C , 13-C ) :   0.1207 B(  8-C , 16-H ) :  -0.6605 B(  8-C , 17-H ) :   2.1435
B(  8-C , 18-H ) :  -0.2648 B(  8-C , 23-N ) :   0.9661 B(  8-C , 35-C ) :   0.2099
B(  8-C , 37-C ) :   0.1176 B(  8-C , 47-C ) :  -0.2304 B(  8-C , 48-H ) :  -0.2016
B(  9-C , 10-C ) :  -1.4795 B(  9-C , 11-C ) :  -1.2176 B(  9-C , 16-H ) :   0.1877
B(  9-C , 17-H ) :  -0.9377 B(  9-C , 18-H ) :  -0.7454 B(  9-C , 23-N ) :   0.3551
B(  9-C , 35-C ) :  -0.3509 B(  9-C , 36-C ) :   0.2031 B(  9-C , 37-C ) :   0.2575
B(  9-C , 47-C ) :  -0.3011 B(  9-C , 48-H ) :  -0.1271 B( 10-C , 11-C ) :  -2.0950
B( 10-C , 17-H ) :  -0.2948 B( 10-C , 18-H ) :   1.6997 B( 10-C , 19-H ) :  -0.8727
B( 10-C , 24-C ) :   0.1661 B( 10-C , 35-C ) :   0.1052 B( 10-C , 36-C ) :  -0.1305
B( 10-C , 37-C ) :  -0.2180 B( 10-C , 47-C ) :   0.6902 B( 10-C , 48-H ) :   0.2824
B( 11-C , 16-H ) :  -0.2654 B( 11-C , 18-H ) :   0.1067 B( 11-C , 19-H ) :   2.4106
B( 11-C , 24-C ) :  -0.1578 B( 12-C , 13-C ) :   0.4427 B( 12-C , 15-H ) :  -0.1879
B( 12-C , 20-H ) :   1.6444 B( 12-C , 21-H ) :  -0.3296 B( 12-C , 24-C ) :  -0.4412
B( 12-C , 29-C ) :   0.3138 B( 12-C , 46-C ) :   0.2287 B( 13-C , 14-H ) :  -0.2275
B( 13-C , 20-H ) :  -0.1839 B( 13-C , 21-H ) :   2.1371 B( 13-C , 22-N ) :   0.8487
B( 13-C , 24-C ) :   0.7069 B( 13-C , 29-C ) :  -0.3281 B( 13-C , 46-C ) :  -0.6168
B( 13-C , 49-H ) :  -0.2592 B( 22-N , 24-C ) :   0.9966 B( 22-N , 25-C ) :   0.1801
B( 22-N , 29-C ) :  -0.1192 B( 22-N , 46-C ) :   1.0931 B( 23-N , 35-C ) :   0.9129
B( 23-N , 36-C ) :   0.1324 B( 23-N , 40-C ) :  -0.1752 B( 23-N , 47-C ) :   1.2538
B( 24-C , 25-C ) :   2.0349 B( 24-C , 26-C ) :  -0.2401 B( 24-C , 28-C ) :  -0.2254
B( 24-C , 29-C ) :   0.4516 B( 24-C , 31-H ) :  -0.4580 B( 24-C , 34-H ) :  -0.3679
B( 24-C , 46-C ) :   0.4932 B( 24-C , 49-H ) :   0.1875 B( 25-C , 26-C ) :   0.9110
B( 25-C , 27-C ) :  -0.1385 B( 25-C , 28-C ) :   0.1529 B( 25-C , 29-C ) :  -0.6697
B( 25-C , 32-H ) :  -0.1568 B( 25-C , 34-H ) :   1.3966 B( 25-C , 46-C ) :  -1.3823
B( 25-C , 49-H ) :   0.1920 B( 26-C , 27-C ) :   0.8665 B( 26-C , 29-C ) :   0.1362
B( 26-C , 32-H ) :   1.2142 B( 26-C , 33-H ) :  -0.1241 B( 26-C , 34-H ) :  -0.1343
B( 26-C , 46-C ) :   0.1680 B( 27-C , 28-C ) :   0.8609 B( 27-C , 29-C ) :   0.1670
B( 27-C , 30-H ) :  -0.1411 B( 27-C , 32-H ) :  -0.1518 B( 27-C , 33-H ) :   1.1385
B( 28-C , 29-C ) :   1.1009 B( 28-C , 30-H ) :   1.1621 B( 28-C , 31-H ) :  -0.1104
B( 28-C , 33-H ) :  -0.1213 B( 28-C , 46-C ) :   0.1270 B( 29-C , 30-H ) :  -0.1499
B( 29-C , 31-H ) :   1.2918 B( 29-C , 46-C ) :  -0.4608 B( 29-C , 49-H ) :  -0.3151
B( 31-H , 46-C ) :   0.1943 B( 35-C , 36-C ) :   1.8589 B( 35-C , 37-C ) :   0.1125
B( 35-C , 40-C ) :   0.2700 B( 35-C , 41-H ) :  -0.5855 B( 35-C , 44-H ) :  -0.3787
B( 35-C , 47-C ) :   0.5646 B( 35-C , 48-H ) :   0.1618 B( 36-C , 37-C ) :   1.1121
B( 36-C , 38-C ) :  -0.1591 B( 36-C , 40-C ) :  -0.6344 B( 36-C , 44-H ) :   1.2932
B( 36-C , 45-H ) :  -0.1031 B( 36-C , 47-C ) :  -0.9300 B( 36-C , 48-H ) :   0.2806
B( 37-C , 38-C ) :   0.9075 B( 37-C , 40-C ) :   0.1372 B( 37-C , 42-H ) :  -0.1465
B( 37-C , 45-H ) :   1.1364 B( 37-C , 47-C ) :  -0.1475 B( 38-C , 39-C ) :   0.8635
B( 38-C , 40-C ) :   0.1553 B( 38-C , 42-H ) :   1.1436 B( 38-C , 43-H ) :  -0.1339
B( 38-C , 45-H ) :  -0.1261 B( 39-C , 40-C ) :   0.9458 B( 39-C , 41-H ) :  -0.1827
B( 39-C , 42-H ) :  -0.1248 B( 39-C , 43-H ) :   1.1756 B( 40-C , 41-H ) :   1.3968
B( 40-C , 43-H ) :  -0.1786 B( 40-C , 44-H ) :  -0.1041 B( 40-C , 47-C ) :  -0.1523
B( 40-C , 48-H ) :  -0.4174 B( 41-H , 47-C ) :   0.2937 B( 44-H , 47-C ) :   0.1165
B( 46-C , 49-H ) :   0.8584 B( 47-C , 48-H ) :   0.8611

-----------------------------------------------------------------------------
         ABSORPTION SPECTRUM VIA TRANSITION ELECTRIC DIPOLE MOMENTS
-----------------------------------------------------------------------------
State   Energy  Wavelength   fosc         T2         TX        TY        TZ
        (cm-1)    (nm)                  (au**2)     (au)      (au)      (au)
-----------------------------------------------------------------------------
   1   10083.3    991.7   0.013904261   0.45396  -0.59636  -0.15544   0.27232
   2   12007.8    832.8   0.010559724   0.28951   0.47850   0.10777  -0.22122
   3   12957.7    771.7   0.000020249   0.00051  -0.01999  -0.00855  -0.00644
   4   15263.8    655.1   0.270567342   5.83564  -2.14040  -0.58656   0.95407
   5   19370.1    516.3   1.610684304  27.37500  -4.65559  -1.21252   2.05676
   6   20971.8    476.8   0.048056052   0.75438  -0.70727  -0.36507   0.34767
   7   19281.1    518.6   0.013992246   0.23891  -0.43990  -0.11049   0.18217
   8   17104.1    584.7   0.029498096   0.56777  -0.60683  -0.21467   0.39172
   9   20136.1    496.6   0.014436715   0.23603  -0.47105  -0.01237   0.11829
  10   21563.1    463.8   0.001162229   0.01774  -0.11236  -0.06943  -0.01730

FINAL SINGLE POINT ENERGY     -1220.833386383109

DIPOLE MOMENT
-------------
                                X             Y             Z
Electronic contribution:     -0.54950       2.46803       0.39567
Nuclear contribution   :     -0.06692      -2.42322      -1.42933
                        -----------------------------------------
Total Dipole Moment    :     -0.61642       0.04481      -1.03366
                        -----------------------------------------
Magnitude (a.u.)       :      1.20434
Magnitude (Debye)      :      3.06120

                             ****ORCA TERMINATED NORMALLY****
TOTAL RUN TIME: 0 days 0 hours 14 minutes 7 seconds 326 msec
